DF-ISE

# Lab 7 for PKIMS-34

Vertices ( 2912 ) {
 -0.20706 -0.7727400000000001 0.175
 -0.20706 -0.7727400000000001 0
 0 -0.8 0
 0 -0.8 0.175
 -0.2619580930930931 -0.7500000000000001 0
 -0.2619580930930931 -0.7500000000000001 0.175
 0 -0.7500000000000001 0
 0 -0.7500000000000001 0.175
 -0.20706 -0.7727400000000001 0.35
 0 -0.8 0.35
 -0.2619580930930931 -0.7500000000000001 0.2625
 -0.2619580930930931 -0.7500000000000001 0.35
 0 -0.7500000000000001 0.2625
 0 -0.7500000000000001 0.35
 -0.20706 -0.7727400000000001 0.525
 0 -0.8 0.525
 -0.2619580930930931 -0.7500000000000001 0.525
 -0.20706 -0.7500000000000001 0.525
 0 -0.7500000000000001 0.525
 -0.20706 -0.7727400000000001 0.7000000000000001
 0 -0.8 0.7000000000000001
 -0.2619580930930931 -0.7500000000000001 0.7000000000000001
 -0.20706 -0.7500000000000001 0.7000000000000001
 0 -0.7500000000000001 0.7000000000000001
 -0.20706 -0.9727434734564563 0.7000000000000001
 -0.25882 -0.9659300000000001 0.7000000000000001
 -0.2619580930930931 -0.9646301596318103 0.7000000000000001
 0 -0.9123266373662825 0.7000000000000001
 0 -1 0.7000000000000001
 -0.651214279511704 -0.7500000000000001 0.7000000000000001
 -0.5 -0.8660300000000001 0.7000000000000001
 -0.5 -0.8660300000000001 1
 -0.56569 -0.8156246366665058 1
 -0.651214279511704 -0.7500000000000001 1
 -0.5 -0.7500000000000001 0.7000000000000001
 -0.56569 -0.7500000000000001 0.7000000000000001
 -0.56569 -0.7500000000000001 1
 -0.5 -0.7500000000000001 1
 -0.56569 -0.9123266373662825 1
 -0.7500000000000001 -0.9123266373662825 1
 -0.7500000000000001 -0.7500000000000001 1
 -0.5 -0.9123266373662825 1
 -0.38823 -0.9123266373662825 0.7000000000000001
 -0.38823 -0.9123266373662825 1
 -0.38823 -0.7500000000000001 0.7000000000000001
 -0.38823 -0.7500000000000001 1
 -0.20706 -0.7727400000000001 1
 -0.2619580930930931 -0.7500000000000001 1
 -0.25882 -0.9659300000000001 1
 -0.20706 -0.9727434734564563 1
 -0.20706 -0.7500000000000001 1
 -0.20706 -0.9123266373662825 1
 -0.20706 -1 1
 -0.38823 -1 1
 0 -0.8 1
 0 -1 1
 0 -0.7500000000000001 1
 0 -0.9123266373662825 1
 -0.8 0 0.175
 -0.8 0 0
 -0.7727400000000001 -0.20706 0
 -0.7727400000000001 -0.20706 0.175
 -0.7500000000000001 -0.2619580930930931 0
 -0.7500000000000001 -0.2619580930930931 0.175
 -0.7500000000000001 0 0
 -0.7500000000000001 0 0.175
 -0.8 0 0.35
 -0.7727400000000001 -0.20706 0.35
 -0.7500000000000001 -0.2619580930930931 0.2625
 -0.7500000000000001 -0.2619580930930931 0.35
 -0.7500000000000001 0 0.35
 -0.7500000000000001 0 0.2625
 -0.8 0 0.525
 -0.7727400000000001 -0.20706 0.525
 -0.7500000000000001 -0.2619580930930931 0.525
 -0.7500000000000001 0 0.525
 -0.7500000000000001 -0.20706 0.525
 -0.8 0 0.7000000000000001
 -0.7727400000000001 -0.20706 0.7000000000000001
 -0.7500000000000001 -0.2619580930930931 0.7000000000000001
 -0.7500000000000001 0 0.7000000000000001
 -0.7500000000000001 -0.20706 0.7000000000000001
 -0.9646301596318103 -0.2619580930930931 0.7000000000000001
 -0.9659300000000001 -0.25882 0.7000000000000001
 -0.9727434734564563 -0.20706 0.7000000000000001
 -1 0 0.7000000000000001
 -0.9053300000000002 0 0.7000000000000001
 -0.8156246366665058 -0.56569 1
 -0.7500000000000001 -0.651214279511704 1
 -0.8660300000000001 -0.5 1
 -0.8660300000000001 -0.5 0.7000000000000001
 -0.7500000000000001 -0.651214279511704 0.7000000000000001
 -0.7500000000000001 -0.56569 0.7000000000000001
 -0.7500000000000001 -0.5 0.7000000000000001
 -0.7500000000000001 -0.5 1
 -0.7500000000000001 -0.56569 1
 -0.9123266373662825 -0.7500000000000001 1
 -0.9053300000000002 -0.7500000000000001 1
 -0.9053300000000002 -0.56569 1
 -0.9123266373662825 -0.56569 1
 -0.9053300000000002 -0.5 1
 -0.9123266373662825 -0.5 1
 -0.9123266373662825 -0.38823 0.7000000000000001
 -0.9053300000000002 -0.4051213813813811 1
 -0.9123266373662825 -0.38823 1
 -0.7500000000000001 -0.38823 0.7000000000000001
 -0.9053300000000002 -0.38823 1
 -0.7500000000000001 -0.38823 1
 -0.7727400000000001 -0.20706 1
 -0.7500000000000001 -0.2619580930930931 1
 -0.9659300000000001 -0.25882 1
 -0.9727434734564563 -0.20706 1
 -0.9053300000000002 -0.20706 1
 -0.7500000000000001 -0.20706 1
 -1 -0.38823 1
 -1 -0.20706 1
 -0.8 0 1
 -1 0 1
 -0.9053300000000002 0 1
 -0.7500000000000001 0 1
 -0.56569 -0.56569 0.2625
 -0.56569 -0.56569 0
 -0.4 -0.6928200000000001 0
 -0.4 -0.6928200000000001 0.2625
 -0.4 -0.56569 0
 -0.4 -0.56569 0.2625
 -0.6928200000000001 -0.4 0.2625
 -0.6928200000000001 -0.4 0
 -0.56569 -0.4 0
 -0.56569 -0.4 0.2625
 -0.4 -0.4 0
 -0.4 -0.4 0.2625
 -0.56569 -0.56569 0.525
 -0.4 -0.6928200000000001 0.525
 -0.4 -0.56569 0.525
 -0.6928200000000001 -0.4 0.525
 -0.56569 -0.4 0.525
 -0.4 -0.4 0.525
 -0.2619580930930931 -0.56569 0
 -0.2619580930930931 -0.56569 0.2625
 0 -0.56569 0
 0 -0.56569 0.2625
 0 -0.56569 0.175
 -0.2619580930930931 -0.4 0
 -0.2619580930930931 -0.4 0.2625
 0 -0.4 0
 0 -0.4 0.2625
 0 -0.4 0.175
 -0.38823 -0.6976953933865452 0.525
 -0.38823 -0.56569 0.525
 -0.2619580930930931 -0.56569 0.525
 -0.20706 -0.56569 0.525
 0 -0.56569 0.525
 0 -0.56569 0.35
 -0.38823 -0.4 0.525
 -0.2619580930930931 -0.4 0.525
 -0.20706 -0.4 0.525
 0 -0.4 0.525
 0 -0.4 0.35
 -0.56569 -0.2619580930930931 0
 -0.56569 -0.2619580930930931 0.2625
 -0.56569 0 0
 -0.56569 0 0.175
 -0.56569 0 0.2625
 -0.4 -0.2619580930930931 0
 -0.4 -0.2619580930930931 0.2625
 -0.4 0 0
 -0.4 0 0.175
 -0.4 0 0.2625
 -0.6976953933865452 -0.38823 0.525
 -0.56569 -0.2619580930930931 0.525
 -0.56569 -0.38823 0.525
 -0.56569 0 0.35
 -0.56569 0 0.525
 -0.56569 -0.20706 0.525
 -0.4 -0.2619580930930931 0.525
 -0.4 -0.38823 0.525
 -0.4 0 0.35
 -0.4 0 0.525
 -0.4 -0.20706 0.525
 -0.2619580930930931 -0.2619580930930931 0
 -0.2619580930930931 -0.2619580930930931 0.2625
 0 -0.38823 0
 0 -0.2619580930930931 0
 0 -0.2619580930930931 0.2625
 0 -0.2619580930930931 0.175
 0 -0.38823 0.175
 0 -0.38823 0.2625
 -0.2619580930930931 0 0
 -0.38823 0 0
 -0.38823 0 0.175
 -0.2619580930930931 0 0.175
 -0.38823 0 0.2625
 -0.2619580930930931 0 0.2625
 0 0 0
 0 0 0.175
 0 0 0.2625
 -0.38823 -0.2619580930930931 0.525
 -0.2619580930930931 -0.2619580930930931 0.525
 -0.2619580930930931 -0.38823 0.525
 -0.38823 -0.38823 0.525
 -0.20706 -0.2619580930930931 0.525
 0 -0.2619580930930931 0.525
 0 -0.2619580930930931 0.35
 0 -0.38823 0.35
 0 -0.38823 0.525
 -0.20706 -0.38823 0.525
 -0.38823 0 0.35
 -0.2619580930930931 0 0.35
 -0.38823 0 0.525
 -0.2619580930930931 0 0.525
 -0.2619580930930931 -0.20706 0.525
 -0.38823 -0.20706 0.525
 -0.20706 0 0.35
 0 0 0.35
 -0.20706 0 0.525
 0 0 0.525
 0 -0.20706 0.35
 0 -0.20706 0.525
 -0.20706 -0.20706 0.525
 -0.4 -0.6928200000000001 0.7000000000000001
 -0.38823 -0.6976953933865452 0.7000000000000001
 -0.56569 -0.56569 0.7000000000000001
 -0.38823 -0.56569 0.7000000000000001
 -0.6928200000000001 -0.4 0.7000000000000001
 -0.6976953933865452 -0.38823 0.7000000000000001
 -0.56569 -0.38823 0.7000000000000001
 -0.38823 -0.38823 0.7000000000000001
 -0.70711 -0.70711 1
 -0.70711 -0.70711 0.7000000000000001
 -0.56569 -0.56569 1
 -0.4 -0.6928200000000001 1
 -0.38823 -0.6976953933865452 1
 -0.38823 -0.56569 1
 -0.6976953933865452 -0.38823 1
 -0.6928200000000001 -0.4 1
 -0.56569 -0.38823 1
 -0.38823 -0.38823 1
 -0.20706 -0.56569 0.7000000000000001
 -0.20706 -0.38823 0.7000000000000001
 0 -0.56569 0.7000000000000001
 0 -0.38823 0.7000000000000001
 -0.20706 -0.56569 1
 -0.20706 -0.38823 1
 0 -0.56569 1
 0 -0.38823 1
 -0.56569 -0.20706 0.7000000000000001
 -0.38823 -0.20706 0.7000000000000001
 -0.56569 0 0.7000000000000001
 -0.38823 0 0.7000000000000001
 -0.56569 -0.20706 1
 -0.38823 -0.20706 1
 -0.56569 0 1
 -0.38823 0 1
 -0.20706 -0.20706 0.7000000000000001
 0 -0.20706 0.7000000000000001
 -0.20706 0 0.7000000000000001
 0 0 0.7000000000000001
 -0.20706 -0.20706 1
 0 -0.20706 1
 -0.20706 0 1
 0 0 1
 -0.7500000000000001 -1.29904 1
 -0.7500000000000001 -1.29904 1.5
 -1.06066 -1.06066 1.5
 -1.06066 -1.06066 1.25
 -1.06066 -1.06066 1
 -0.7500000000000001 -1.06066 1
 -0.9053300000000002 -1.06066 1
 -0.9053300000000002 -1.06066 1.25
 -0.9053300000000002 -1.06066 1.5
 -0.7500000000000001 -1.06066 1.25
 -0.7500000000000001 -1.06066 1.5
 -1.29904 -0.7500000000000001 1.5
 -1.29904 -0.7500000000000001 1
 -1.06066 -0.9123266373662825 1
 -1.06066 -0.7500000000000001 1
 -1.06066 -0.7500000000000001 1.5
 -1.06066 -0.7500000000000001 1.25
 -1.06066 -0.9123266373662825 1.25
 -1.06066 -0.9123266373662825 1.5
 -0.9053300000000002 -0.9123266373662825 1
 -0.9053300000000002 -0.9123266373662825 1.25
 -0.7500000000000001 -0.9123266373662825 1.25
 -0.9053300000000002 -0.7500000000000001 1.25
 -0.7500000000000001 -0.7500000000000001 1.25
 -0.9053300000000002 -0.9123266373662825 1.5
 -0.9053300000000002 -0.7500000000000001 1.5
 -0.7500000000000001 -0.9123266373662825 1.5
 -0.7500000000000001 -0.7500000000000001 1.5
 -0.7500000000000001 -1.29904 2
 -1.06066 -1.06066 2
 -1.06066 -1.06066 1.75
 -0.9053300000000002 -1.06066 1.75
 -0.9053300000000002 -1.06066 2
 -0.7500000000000001 -1.06066 1.75
 -0.7500000000000001 -1.06066 2
 -1.29904 -0.7500000000000001 2
 -1.06066 -0.7500000000000001 2
 -1.06066 -0.7500000000000001 1.75
 -1.06066 -0.9123266373662825 1.75
 -1.06066 -0.9123266373662825 2
 -0.9053300000000002 -0.9123266373662825 1.75
 -0.9053300000000002 -0.7500000000000001 1.75
 -0.7500000000000001 -0.9123266373662825 1.75
 -0.7500000000000001 -0.7500000000000001 1.75
 -0.9053300000000002 -0.9123266373662825 2
 -0.9053300000000002 -0.7500000000000001 2
 -0.7500000000000001 -0.9123266373662825 2
 -0.7500000000000001 -0.7500000000000001 2
 -0.38823 -1.44889 1
 -0.38823 -1.44889 1.5
 -0.38823 -1.29904 1
 -0.38823 -1.06066 1
 -0.56569 -1.06066 1
 -0.56569 -1.06066 1.25
 -0.56569 -1.06066 1.5
 -0.38823 -1.06066 1.25
 -0.38823 -1.06066 1.5
 -0.56569 -0.9123266373662825 1.25
 -0.651214279511704 -0.7500000000000001 1.25
 -0.56569 -0.8156246366665058 1.25
 -0.56569 -0.7500000000000001 1.25
 -0.38823 -0.9123266373662825 1.25
 -0.5 -0.8660300000000001 1.25
 -0.38823 -0.7500000000000001 1.25
 -0.56569 -0.9123266373662825 1.5
 -0.651214279511704 -0.7500000000000001 1.5
 -0.56569 -0.8156246366665058 1.5
 -0.56569 -0.7500000000000001 1.5
 -0.38823 -0.9123266373662825 1.5
 -0.5 -0.8660300000000001 1.5
 -0.38823 -0.7500000000000001 1.5
 0 -1.5 1
 0 -1.5 1.5
 0 -1.06066 1
 -0.20706 -1.06066 1
 -0.20706 -1.06066 1.25
 -0.20706 -1.06066 1.5
 0 -1.06066 1.25
 0 -1.06066 1.5
 -0.25882 -0.9659300000000001 1.25
 -0.20706 -0.9727434734564563 1.25
 -0.20706 -0.9123266373662825 1.25
 -0.20706 -0.7727400000000001 1.25
 -0.2619580930930931 -0.7500000000000001 1.25
 -0.20706 -0.7500000000000001 1.25
 0 -1 1.25
 0 -0.9123266373662825 1.25
 0 -0.8 1.25
 0 -0.7500000000000001 1.25
 -0.25882 -0.9659300000000001 1.5
 -0.20706 -0.9727434734564563 1.5
 -0.20706 -0.9123266373662825 1.5
 -0.20706 -0.7727400000000001 1.5
 -0.2619580930930931 -0.7500000000000001 1.5
 -0.20706 -0.7500000000000001 1.5
 0 -1 1.5
 0 -0.9123266373662825 1.5
 0 -0.8 1.5
 0 -0.7500000000000001 1.5
 -0.38823 -1.44889 2
 -0.56569 -1.06066 1.75
 -0.56569 -1.06066 2
 -0.38823 -1.06066 1.75
 -0.38823 -1.06066 2
 -0.56569 -0.9123266373662825 1.75
 -0.651214279511704 -0.7500000000000001 1.75
 -0.56569 -0.8156246366665058 1.75
 -0.56569 -0.7500000000000001 1.75
 -0.38823 -0.9123266373662825 1.75
 -0.5 -0.8660300000000001 1.75
 -0.38823 -0.7500000000000001 1.75
 -0.56569 -0.9123266373662825 2
 -0.651214279511704 -0.7500000000000001 2
 -0.56569 -0.8156246366665058 2
 -0.56569 -0.7500000000000001 2
 -0.38823 -0.9123266373662825 2
 -0.5 -0.8660300000000001 2
 -0.38823 -0.7500000000000001 2
 0 -1.5 2
 -0.20706 -1.06066 1.75
 -0.20706 -1.06066 2
 0 -1.06066 1.75
 0 -1.06066 2
 -0.25882 -0.9659300000000001 1.75
 -0.20706 -0.9727434734564563 1.75
 -0.20706 -0.9123266373662825 1.75
 -0.20706 -0.7727400000000001 1.75
 -0.2619580930930931 -0.7500000000000001 1.75
 -0.20706 -0.7500000000000001 1.75
 0 -1 1.75
 0 -0.9123266373662825 1.75
 0 -0.8 1.75
 0 -0.7500000000000001 1.75
 -0.25882 -0.9659300000000001 2
 -0.20706 -0.9727434734564563 2
 -0.20706 -0.9123266373662825 2
 -0.20706 -0.7727400000000001 2
 -0.2619580930930931 -0.7500000000000001 2
 -0.20706 -0.7500000000000001 2
 0 -1 2
 0 -0.9123266373662825 2
 0 -0.8 2
 0 -0.7500000000000001 2
 -1.44889 -0.38823 1.5
 -1.44889 -0.38823 1
 -1.29904 -0.38823 1
 -1.06066 -0.56569 1
 -1.06066 -0.38823 1
 -1.06066 -0.38823 1.5
 -1.06066 -0.38823 1.25
 -1.06066 -0.56569 1.25
 -1.06066 -0.56569 1.5
 -0.9053300000000002 -0.56569 1.25
 -0.7500000000000001 -0.651214279511704 1.25
 -0.8156246366665058 -0.56569 1.25
 -0.7500000000000001 -0.56569 1.25
 -0.9123266373662825 -0.38823 1.25
 -0.9053300000000002 -0.4051213813813811 1.25
 -0.9053300000000002 -0.38823 1.25
 -0.8660300000000001 -0.5 1.25
 -0.7500000000000001 -0.38823 1.25
 -0.9053300000000002 -0.56569 1.5
 -0.7500000000000001 -0.651214279511704 1.5
 -0.8156246366665058 -0.56569 1.5
 -0.7500000000000001 -0.56569 1.5
 -0.9123266373662825 -0.38823 1.5
 -0.9053300000000002 -0.4051213813813811 1.5
 -0.9053300000000002 -0.38823 1.5
 -0.8660300000000001 -0.5 1.5
 -0.7500000000000001 -0.38823 1.5
 -1.5 0 1.5
 -1.5 0 1
 -1.06066 -0.20706 1
 -1.06066 0 1
 -1.06066 0 1.5
 -1.06066 0 1.25
 -1.06066 -0.20706 1.25
 -1.06066 -0.20706 1.5
 -0.9659300000000001 -0.25882 1.25
 -0.9727434734564563 -0.20706 1.25
 -0.9053300000000002 -0.20706 1.25
 -0.7500000000000001 -0.2619580930930931 1.25
 -0.7727400000000001 -0.20706 1.25
 -0.7500000000000001 -0.20706 1.25
 -1 0 1.25
 -0.9053300000000002 0 1.25
 -0.8 0 1.25
 -0.7500000000000001 0 1.25
 -0.9659300000000001 -0.25882 1.5
 -0.9727434734564563 -0.20706 1.5
 -0.9053300000000002 -0.20706 1.5
 -0.7500000000000001 -0.2619580930930931 1.5
 -0.7727400000000001 -0.20706 1.5
 -0.7500000000000001 -0.20706 1.5
 -1 0 1.5
 -0.9053300000000002 0 1.5
 -0.8 0 1.5
 -0.7500000000000001 0 1.5
 -1.44889 -0.38823 2
 -1.06066 -0.38823 2
 -1.06066 -0.38823 1.75
 -1.06066 -0.56569 1.75
 -1.06066 -0.56569 2
 -0.9053300000000002 -0.56569 1.75
 -0.7500000000000001 -0.651214279511704 1.75
 -0.8156246366665058 -0.56569 1.75
 -0.7500000000000001 -0.56569 1.75
 -0.9123266373662825 -0.38823 1.75
 -0.9053300000000002 -0.4051213813813811 1.75
 -0.9053300000000002 -0.38823 1.75
 -0.8660300000000001 -0.5 1.75
 -0.7500000000000001 -0.38823 1.75
 -0.9053300000000002 -0.56569 2
 -0.7500000000000001 -0.651214279511704 2
 -0.8156246366665058 -0.56569 2
 -0.7500000000000001 -0.56569 2
 -0.9123266373662825 -0.38823 2
 -0.9053300000000002 -0.4051213813813811 2
 -0.9053300000000002 -0.38823 2
 -0.8660300000000001 -0.5 2
 -0.7500000000000001 -0.38823 2
 -1.5 0 2
 -1.06066 0 2
 -1.06066 0 1.75
 -1.06066 -0.20706 1.75
 -1.06066 -0.20706 2
 -0.9659300000000001 -0.25882 1.75
 -0.9727434734564563 -0.20706 1.75
 -0.9053300000000002 -0.20706 1.75
 -0.7727400000000001 -0.20706 1.75
 -0.7500000000000001 -0.2619580930930931 1.75
 -0.7500000000000001 -0.20706 1.75
 -1 0 1.75
 -0.9053300000000002 0 1.75
 -0.8 0 1.75
 -0.7500000000000001 0 1.75
 -0.9659300000000001 -0.25882 2
 -0.9727434734564563 -0.20706 2
 -0.9053300000000002 -0.20706 2
 -0.7727400000000001 -0.20706 2
 -0.7500000000000001 -0.2619580930930931 2
 -0.7500000000000001 -0.20706 2
 -1 0 2
 -0.9053300000000002 0 2
 -0.8 0 2
 -0.7500000000000001 0 2
 -0.70711 -0.70711 1.25
 -0.56569 -0.56569 1.25
 -0.38823 -0.6976953933865452 1.25
 -0.4 -0.6928200000000001 1.25
 -0.38823 -0.56569 1.25
 -0.6976953933865452 -0.38823 1.25
 -0.6928200000000001 -0.4 1.25
 -0.56569 -0.38823 1.25
 -0.38823 -0.38823 1.25
 -0.70711 -0.70711 1.5
 -0.56569 -0.56569 1.5
 -0.4 -0.6928200000000001 1.5
 -0.38823 -0.6976953933865452 1.5
 -0.38823 -0.56569 1.5
 -0.6976953933865452 -0.38823 1.5
 -0.6928200000000001 -0.4 1.5
 -0.56569 -0.38823 1.5
 -0.38823 -0.38823 1.5
 -0.20706 -0.56569 1.25
 -0.20706 -0.38823 1.25
 0 -0.56569 1.25
 0 -0.38823 1.25
 -0.20706 -0.56569 1.5
 -0.20706 -0.38823 1.5
 0 -0.56569 1.5
 0 -0.38823 1.5
 -0.56569 -0.20706 1.25
 -0.38823 -0.20706 1.25
 -0.56569 0 1.25
 -0.38823 0 1.25
 -0.56569 -0.20706 1.5
 -0.38823 -0.20706 1.5
 -0.56569 0 1.5
 -0.38823 0 1.5
 -0.20706 -0.20706 1.25
 0 -0.20706 1.25
 -0.20706 0 1.25
 0 0 1.25
 -0.20706 -0.20706 1.5
 0 -0.20706 1.5
 -0.20706 0 1.5
 0 0 1.5
 -0.70711 -0.70711 1.75
 -0.56569 -0.56569 1.75
 -0.38823 -0.6976953933865452 1.75
 -0.4 -0.6928200000000001 1.75
 -0.38823 -0.56569 1.75
 -0.6976953933865452 -0.38823 1.75
 -0.6928200000000001 -0.4 1.75
 -0.56569 -0.38823 1.75
 -0.38823 -0.38823 1.75
 -0.70711 -0.70711 2
 -0.56569 -0.56569 2
 -0.4 -0.6928200000000001 2
 -0.38823 -0.6976953933865452 2
 -0.38823 -0.56569 2
 -0.6976953933865452 -0.38823 2
 -0.6928200000000001 -0.4 2
 -0.56569 -0.38823 2
 -0.38823 -0.38823 2
 -0.20706 -0.56569 1.75
 -0.20706 -0.38823 1.75
 0 -0.56569 1.75
 0 -0.38823 1.75
 -0.20706 -0.56569 2
 -0.20706 -0.38823 2
 0 -0.56569 2
 0 -0.38823 2
 -0.56569 -0.20706 1.75
 -0.38823 -0.20706 1.75
 -0.56569 0 1.75
 -0.38823 0 1.75
 -0.56569 -0.20706 2
 -0.38823 -0.20706 2
 -0.56569 0 2
 -0.38823 0 2
 -0.20706 -0.20706 1.75
 0 -0.20706 1.75
 -0.20706 0 1.75
 0 0 1.75
 -0.20706 -0.20706 2
 0 -0.20706 2
 -0.20706 0 2
 0 0 2
 -0.56569 -0.8156246366665058 2.3
 -0.651214279511704 -0.7500000000000001 2.3
 -0.56569 -0.7500000000000001 2.3
 -0.38823 -0.9123266373662825 2.3
 -0.5 -0.8660300000000001 2.3
 -0.38823 -0.7500000000000001 2.3
 -0.25882 -0.9659300000000001 2.3
 -0.20706 -0.9727434734564563 2.3
 -0.20706 -0.9123266373662825 2.3
 -0.20706 -0.7727400000000001 2.3
 -0.2619580930930931 -0.7500000000000001 2.3
 -0.20706 -0.7500000000000001 2.3
 0 -1 2.3
 0 -0.9123266373662825 2.3
 0 -0.8 2.3
 0 -0.7500000000000001 2.3
 -0.20706 -0.7727400000000001 2.475000000000001
 -0.2619580930930931 -0.7500000000000001 2.475000000000001
 -0.20706 -0.7500000000000001 2.475000000000001
 -0.20706 -0.7727400000000001 2.65
 -0.2619580930930931 -0.7500000000000001 2.65
 -0.20706 -0.7500000000000001 2.65
 0 -0.8 2.475000000000001
 0 -0.7500000000000001 2.475000000000001
 0 -0.8 2.65
 0 -0.7500000000000001 2.65
 -0.20706 -0.7727400000000001 2.825
 -0.2619580930930931 -0.7500000000000001 2.825
 -0.2619580930930931 -0.7500000000000001 2.737500000000001
 -0.20706 -0.7500000000000001 2.737500000000001
 -0.20706 -0.7500000000000001 2.825
 -0.20706 -0.7727400000000001 3
 -0.2619580930930931 -0.7500000000000001 3
 -0.20706 -0.7500000000000001 3
 0 -0.8 2.825
 0 -0.7500000000000001 2.737500000000001
 0 -0.7500000000000001 2.825
 0 -0.8 3
 0 -0.7500000000000001 3
 -0.8156246366665058 -0.56569 2.3
 -0.7500000000000001 -0.651214279511704 2.3
 -0.7500000000000001 -0.56569 2.3
 -0.9053300000000002 -0.4051213813813811 2.3
 -0.9123266373662825 -0.38823 2.3
 -0.9053300000000002 -0.38823 2.3
 -0.8660300000000001 -0.5 2.3
 -0.7500000000000001 -0.38823 2.3
 -0.9659300000000001 -0.25882 2.3
 -0.9727434734564563 -0.20706 2.3
 -0.9053300000000002 -0.20706 2.3
 -0.7727400000000001 -0.20706 2.3
 -0.7500000000000001 -0.2619580930930931 2.3
 -0.7500000000000001 -0.20706 2.3
 -1 0 2.3
 -0.9053300000000002 0 2.3
 -0.8 0 2.3
 -0.7500000000000001 0 2.3
 -0.7727400000000001 -0.20706 2.475000000000001
 -0.7500000000000001 -0.2619580930930931 2.475000000000001
 -0.7500000000000001 -0.20706 2.475000000000001
 -0.7727400000000001 -0.20706 2.65
 -0.7500000000000001 -0.2619580930930931 2.65
 -0.7500000000000001 -0.20706 2.65
 -0.8 0 2.475000000000001
 -0.7500000000000001 0 2.475000000000001
 -0.8 0 2.65
 -0.7500000000000001 0 2.65
 -0.7727400000000001 -0.20706 2.825
 -0.7500000000000001 -0.2619580930930931 2.737500000000001
 -0.7500000000000001 -0.2619580930930931 2.825
 -0.7500000000000001 -0.20706 2.825
 -0.7500000000000001 -0.20706 2.737500000000001
 -0.7727400000000001 -0.20706 3
 -0.7500000000000001 -0.2619580930930931 3
 -0.7500000000000001 -0.20706 3
 -0.8 0 2.825
 -0.7500000000000001 0 2.825
 -0.7500000000000001 0 2.737500000000001
 -0.8 0 3
 -0.7500000000000001 0 3
 -0.70711 -0.70711 2.3
 -0.56569 -0.56569 2.3
 -0.4 -0.6928200000000001 2.3
 -0.38823 -0.6976953933865452 2.3
 -0.38823 -0.56569 2.3
 -0.6928200000000001 -0.4 2.3
 -0.6976953933865452 -0.38823 2.3
 -0.56569 -0.38823 2.3
 -0.38823 -0.38823 2.3
 -0.4 -0.6928200000000001 2.475000000000001
 -0.56569 -0.56569 2.475000000000001
 -0.38823 -0.6976953933865452 2.475000000000001
 -0.38823 -0.56569 2.475000000000001
 -0.6928200000000001 -0.4 2.475000000000001
 -0.6976953933865452 -0.38823 2.475000000000001
 -0.56569 -0.38823 2.475000000000001
 -0.38823 -0.38823 2.475000000000001
 -0.20706 -0.56569 2.3
 -0.20706 -0.38823 2.3
 0 -0.56569 2.3
 0 -0.38823 2.3
 -0.20706 -0.56569 2.475000000000001
 -0.20706 -0.38823 2.475000000000001
 0 -0.56569 2.475000000000001
 0 -0.38823 2.475000000000001
 -0.56569 -0.20706 2.3
 -0.38823 -0.20706 2.3
 -0.56569 0 2.3
 -0.38823 0 2.3
 -0.56569 -0.20706 2.475000000000001
 -0.38823 -0.20706 2.475000000000001
 -0.56569 0 2.475000000000001
 -0.38823 0 2.475000000000001
 -0.20706 -0.20706 2.3
 0 -0.20706 2.3
 -0.20706 0 2.3
 0 0 2.3
 -0.20706 -0.20706 2.475000000000001
 0 -0.20706 2.475000000000001
 -0.20706 0 2.475000000000001
 0 0 2.475000000000001
 -0.38823 -0.6976953933865452 2.737500000000001
 -0.4 -0.6928200000000001 2.737500000000001
 -0.56569 -0.56569 2.737500000000001
 -0.38823 -0.56569 2.737500000000001
 -0.6976953933865452 -0.38823 2.737500000000001
 -0.6928200000000001 -0.4 2.737500000000001
 -0.56569 -0.38823 2.737500000000001
 -0.38823 -0.38823 2.737500000000001
 -0.38823 -0.6976953933865452 3
 -0.4 -0.6928200000000001 3
 -0.56569 -0.56569 3
 -0.38823 -0.56569 3
 -0.6928200000000001 -0.4 3
 -0.6976953933865452 -0.38823 3
 -0.56569 -0.38823 3
 -0.38823 -0.38823 3
 -0.20706 -0.56569 2.737500000000001
 -0.20706 -0.38823 2.737500000000001
 0 -0.56569 2.737500000000001
 0 -0.56569 2.65
 0 -0.38823 2.737500000000001
 0 -0.38823 2.65
 -0.20706 -0.56569 3
 -0.20706 -0.38823 3
 0 -0.56569 3
 0 -0.56569 2.825
 0 -0.38823 3
 0 -0.38823 2.825
 -0.56569 -0.20706 2.737500000000001
 -0.38823 -0.20706 2.737500000000001
 -0.56569 0 2.65
 -0.56569 0 2.737500000000001
 -0.38823 0 2.65
 -0.38823 0 2.737500000000001
 -0.56569 -0.20706 3
 -0.38823 -0.20706 3
 -0.56569 0 2.825
 -0.56569 0 3
 -0.38823 0 2.825
 -0.38823 0 3
 -0.20706 -0.20706 2.737500000000001
 0 -0.20706 2.737500000000001
 0 -0.20706 2.65
 -0.20706 0 2.65
 -0.20706 0 2.737500000000001
 0 0 2.65
 0 0 2.737500000000001
 -0.20706 -0.20706 3
 0 -0.20706 3
 0 -0.20706 2.825
 -0.20706 0 2.825
 -0.20706 0 3
 0 0 2.825
 0 0 3
 0.20706 -0.7727400000000001 0
 0.20706 -0.7727400000000001 0.175
 0.2619580930930931 -0.7500000000000001 0
 0.2619580930930931 -0.7500000000000001 0.175
 0.20706 -0.7727400000000001 0.35
 0.2619580930930931 -0.7500000000000001 0.35
 0.20706 -0.7500000000000001 0.35
 0.20706 -0.7727400000000001 0.525
 0.2619580930930931 -0.7500000000000001 0.525
 0.20706 -0.7500000000000001 0.525
 0.20706 -0.7727400000000001 0.7000000000000001
 0.2619580930930931 -0.7500000000000001 0.7000000000000001
 0.20706 -0.7500000000000001 0.7000000000000001
 0.20706 -0.9727434734564563 0.7000000000000001
 0.20706 -0.9123266373662825 0.7000000000000001
 0.2619580930930931 -0.9123266373662825 0.7000000000000001
 0.25882 -0.9659300000000001 0.7000000000000001
 0.2619580930930931 -0.9646301596318103 0.7000000000000001
 0.20706 -0.9727434734564563 1
 0.20706 -0.9123266373662825 1
 0.20706 -1.06066 1
 0.20706 -0.7727400000000001 1
 0.20706 -0.7500000000000001 1
 0.25882 -0.9659300000000001 1
 0.38823 -0.9123266373662825 0.7000000000000001
 0.38823 -0.9123266373662825 1
 0.38823 -1.06066 1
 0.2619580930930931 -0.7500000000000001 1
 0.38823 -0.7500000000000001 0.7000000000000001
 0.38823 -0.7500000000000001 1
 0.38823 -1.44889 1
 0.38823 -1.44889 1.5
 0.20706 -1.06066 1.25
 0.20706 -1.06066 1.5
 0.38823 -1.06066 1.25
 0.38823 -1.06066 1.5
 0.20706 -0.9727434734564563 1.25
 0.20706 -0.9123266373662825 1.25
 0.20706 -0.7727400000000001 1.25
 0.20706 -0.7500000000000001 1.25
 0.25882 -0.9659300000000001 1.25
 0.38823 -0.9123266373662825 1.25
 0.2619580930930931 -0.7500000000000001 1.25
 0.38823 -0.7500000000000001 1.25
 0.20706 -0.9727434734564563 1.5
 0.20706 -0.9123266373662825 1.5
 0.20706 -0.7727400000000001 1.5
 0.20706 -0.7500000000000001 1.5
 0.25882 -0.9659300000000001 1.5
 0.38823 -0.9123266373662825 1.5
 0.2619580930930931 -0.7500000000000001 1.5
 0.38823 -0.7500000000000001 1.5
 0.5 -0.8660300000000001 0.7000000000000001
 0.5 -0.8660300000000001 1
 0.5 -0.7500000000000001 0.7000000000000001
 0.5 -0.7500000000000001 1
 0.5 -0.9123266373662825 1
 0.651214279511704 -0.7500000000000001 0.7000000000000001
 0.651214279511704 -0.7500000000000001 1
 0.56569 -0.7500000000000001 0.7000000000000001
 0.56569 -0.7500000000000001 1
 0.7500000000000001 -0.7500000000000001 1
 0.7500000000000001 -0.9123266373662825 1
 0.7500000000000001 -1.29904 1
 0.7500000000000001 -1.29904 1.5
 0.7500000000000001 -1.06066 1
 0.5 -1.06066 1
 0.5 -1.06066 1.25
 0.5 -1.06066 1.5
 0.7500000000000001 -1.06066 1.25
 0.56569 -1.06066 1.5
 0.7500000000000001 -1.06066 1.5
 0.5 -0.9123266373662825 1.25
 0.7500000000000001 -0.9123266373662825 1.25
 0.5 -0.8660300000000001 1.25
 0.5 -0.7500000000000001 1.25
 0.651214279511704 -0.7500000000000001 1.25
 0.56569 -0.7500000000000001 1.25
 0.7500000000000001 -0.7500000000000001 1.25
 0.5 -0.9123266373662825 1.5
 0.56569 -0.9123266373662825 1.5
 0.7500000000000001 -0.9123266373662825 1.5
 0.5 -0.8660300000000001 1.5
 0.5 -0.7500000000000001 1.5
 0.56569 -0.8156246366665058 1.5
 0.651214279511704 -0.7500000000000001 1.5
 0.56569 -0.7500000000000001 1.5
 0.7500000000000001 -0.7500000000000001 1.5
 1.06066 -1.06066 1
 1.06066 -1.06066 1.25
 1.06066 -1.06066 1.5
 0.9053300000000002 -1.06066 1
 0.9053300000000002 -1.06066 1.25
 0.9053300000000002 -1.06066 1.5
 0.9053300000000002 -0.9123266373662825 1
 0.9053300000000002 -0.9123266373662825 1.25
 0.9053300000000002 -0.7500000000000001 1
 0.9053300000000002 -0.7500000000000001 1.25
 1.06066 -0.9123266373662825 1
 1.06066 -0.9123266373662825 1.25
 1.06066 -0.7500000000000001 1
 1.06066 -0.7500000000000001 1.25
 0.9053300000000002 -0.9123266373662825 1.5
 0.9053300000000002 -0.7500000000000001 1.5
 1.06066 -0.9123266373662825 1.5
 0.9123266373662825 -0.7500000000000001 1.5
 1.06066 -0.7500000000000001 1.5
 1.174481241822654 -0.9123266373662825 1.25
 1.174481241822654 -0.9123266373662825 1
 1.29904 -0.7500000000000001 1.25
 1.29904 -0.7500000000000001 1
 1.174481241822654 -0.9123266373662825 1.5
 1.29904 -0.7500000000000001 1.5
 1.174481241822654 -0.7500000000000001 1.5
 0.2619580930930931 -0.56569 0
 0.2619580930930931 -0.56569 0.175
 0.38823 -0.6976953933865452 0
 0.38823 -0.6976953933865452 0.175
 0.38823 -0.56569 0
 0.38823 -0.56569 0.175
 0.20706 -0.56569 0.35
 0.2619580930930931 -0.56569 0.35
 0.38823 -0.6976953933865452 0.35
 0.38823 -0.56569 0.35
 0.2619580930930931 -0.38823 0
 0.20706 -0.38823 0
 0.20706 -0.38823 0.175
 0.2619580930930931 -0.38823 0.175
 0.38823 -0.38823 0
 0.38823 -0.38823 0.175
 0.20706 -0.38823 0.35
 0.2619580930930931 -0.38823 0.35
 0.38823 -0.38823 0.35
 0.20706 -0.56569 0.525
 0.20706 -0.56569 0.7000000000000001
 0.20706 -0.38823 0.525
 0.20706 -0.38823 0.7000000000000001
 0.38823 -0.6976953933865452 0.525
 0.38823 -0.56569 0.525
 0.38823 -0.6976953933865452 0.7000000000000001
 0.38823 -0.56569 0.7000000000000001
 0.38823 -0.38823 0.525
 0.38823 -0.38823 0.7000000000000001
 0.4 -0.6928200000000001 0.175
 0.4 -0.6928200000000001 0
 0.56569 -0.56569 0
 0.56569 -0.56569 0.175
 0.4 -0.6928200000000001 0.35
 0.56569 -0.56569 0.35
 0.56569 -0.38823 0
 0.56569 -0.38823 0.175
 0.56569 -0.38823 0.35
 0.6928200000000001 -0.4 0
 0.6928200000000001 -0.4 0.175
 0.6976953933865452 -0.38823 0
 0.6976953933865452 -0.38823 0.175
 0.6928200000000001 -0.4 0.35
 0.6976953933865452 -0.38823 0.35
 0.4 -0.6928200000000001 0.525
 0.56569 -0.56569 0.525
 0.4 -0.6928200000000001 0.7000000000000001
 0.56569 -0.56569 0.7000000000000001
 0.56569 -0.38823 0.525
 0.56569 -0.38823 0.7000000000000001
 0.6928200000000001 -0.4 0.525
 0.6976953933865452 -0.38823 0.525
 0.6928200000000001 -0.4 0.7000000000000001
 0.6976953933865452 -0.38823 0.7000000000000001
 0.7500000000000001 -0.56569 0.7000000000000001
 0.7500000000000001 -0.38823 0.7000000000000001
 0.20706 -0.2619580930930931 0
 0.20706 -0.2619580930930931 0.175
 0.20706 0 0
 0.20706 0 0.175
 0.20706 -0.2619580930930931 0.35
 0.20706 0 0.35
 0.20706 -0.20706 0.35
 0.38823 -0.2619580930930931 0
 0.38823 -0.2619580930930931 0.175
 0.38823 -0.20706 0
 0.38823 0 0
 0.38823 0 0.175
 0.38823 -0.20706 0.175
 0.38823 -0.2619580930930931 0.35
 0.38823 0 0.35
 0.38823 -0.20706 0.35
 0.20706 -0.20706 0.525
 0.20706 -0.20706 0.7000000000000001
 0.38823 -0.20706 0.525
 0.38823 -0.20706 0.7000000000000001
 0.20706 0 0.525
 0.20706 0 0.7000000000000001
 0.38823 0 0.525
 0.38823 0 0.7000000000000001
 0.56569 -0.20706 0
 0.56569 -0.20706 0.175
 0.56569 -0.20706 0.35
 0.7500000000000001 -0.2619580930930931 0
 0.7500000000000001 -0.2619580930930931 0.175
 0.7500000000000001 -0.20706 0
 0.7500000000000001 -0.20706 0.175
 0.7500000000000001 -0.2619580930930931 0.35
 0.7500000000000001 -0.20706 0.35
 0.56569 0 0
 0.56569 0 0.175
 0.56569 0 0.35
 0.7500000000000001 0 0
 0.7500000000000001 0 0.175
 0.7500000000000001 0 0.35
 0.56569 -0.20706 0.525
 0.56569 -0.20706 0.7000000000000001
 0.7500000000000001 -0.2619580930930931 0.525
 0.7500000000000001 -0.20706 0.525
 0.7500000000000001 -0.2619580930930931 0.7000000000000001
 0.7500000000000001 -0.20706 0.7000000000000001
 0.56569 0 0.525
 0.56569 0 0.7000000000000001
 0.7500000000000001 0 0.525
 0.7500000000000001 0 0.7000000000000001
 0.20706 -0.56569 1
 0.20706 -0.38823 1
 0.38823 -0.6976953933865452 1
 0.38823 -0.56569 1
 0.38823 -0.38823 1
 0.20706 -0.56569 1.25
 0.20706 -0.38823 1.25
 0.38823 -0.6976953933865452 1.25
 0.38823 -0.56569 1.25
 0.38823 -0.38823 1.25
 0.20706 -0.56569 1.5
 0.20706 -0.38823 1.5
 0.38823 -0.6976953933865452 1.5
 0.38823 -0.56569 1.5
 0.38823 -0.38823 1.5
 0.4 -0.6928200000000001 1
 0.56569 -0.56569 1
 0.70711 -0.70711 0.7000000000000001
 0.70711 -0.70711 1
 0.7500000000000001 -0.651214279511704 0.7000000000000001