DF-ISE

# Lab 7 for PKIMS-34

Vertices ( 45 ) {
 0 0 0
 2.5 0 0
 2.5 2.5 0
 0 2.5 0
 0 0 2.5
 2.5 0 2.5
 0 2.5 2.5
 2.5 2.5 2.5
 5 0 0
 5 2.5 0
 5 0 2.5
 5 2.5 2.5
 2.5 5 0
 0 5 0
 0 5 2.5
 2.5 5 2.5
 5 5 0
 5 5 2.5
 0 0 5
 2.5 0 5
 0 2.5 5
 2.5 2.5 5
 5 0 5
 5 2.5 5
 0 5 5
 2.5 5 5
 5 5 5
 0 0 7.5
 2.5 0 7.5
 0 2.5 7.5
 2.5 2.5 7.5
 5 0 7.5
 5 2.5 7.5
 0 5 7.5
 2.5 5 7.5
 5 5 7.5
 0 0 10
 2.5 0 10
 0 2.5 10
 2.5 2.5 10
 5 0 10
 5 2.5 10
 0 5 10
 2.5 5 10
 5 5 10
}
Edges ( 180 ) {
 0 1
 1 2
 2 3
 3 0
 0 4
 4 5
 5 1
 3 6
 6 4
 6 7
 7 2
 7 5
 1 8
 8 9
 9 2
 5 10
 10 8
 7 11
 11 9
 11 10
 2 12
 12 13
 13 3
 13 14
 14 6
 14 15
 15 12
 15 7
 9 16
 16 12
 15 17
 17 16
 17 11
 4 18
 18 19
 19 5
 6 20
 20 18
 20 21
 21 7
 21 19
 19 22
 22 10
 21 23
 23 11
 23 22
 14 24
 24 20
 24 25
 25 15
 25 21
 25 26
 26 17
 26 23
 18 27
 27 28
 28 19
 20 29
 29 27
 29 30
 30 21
 30 28
 28 31
 31 22
 30 32
 32 23
 32 31
 24 33
 33 29
 33 34
 34 25
 34 30
 34 35
 35 26
 35 32
 27 36
 36 37
 37 28
 29 38
 38 36
 38 39
 39 30
 39 37
 37 40
 40 31
 39 41
 41 32
 41 40
 33 42
 42 38
 42 43
 43 34
 43 39
 43 44
 44 35
 44 41
 0 2
 0 5
 3 4
 3 7
 23 5
 4 7
 20 5
 5 8
 38 37
 22 5
 5 11
 18 5
 28 40
 24 21
 2 15
 10 23
 9 12
 15 16
 9 17
 2 14
 35 25
 30 19
 33 25
 7 19
 39 35
 30 43
 39 42
 2 8
 19 23
 14 20
 30 26
 15 21
 15 23
 12 3
 17 23
 21 26
 18 28
 20 27
 20 30
 14 3
 27 30
 28 22
 30 23
 28 41
 28 32
 39 40
 27 38
 25 30
 20 19
 14 7
 26 32
 30 35
 27 37
 2 11
 29 39
 2 4
 30 22
 20 4
 39 32
 32 40
 30 24
 33 38
 33 43
 20 7
 15 24
 43 35
 35 41
 39 44
 2 5
 23 7
 15 26
 30 33
 9 15
 12 14
 20 15
 18 30
 32 22
 39 28
 15 11
 9 10
 39 33
 20 33
 10 2
 27 39
}
Faces ( 232 ) {
 TRI 0 -7 -98
 TRI 7 8 -99
 TRI -3 -11 -100
 TRI 100 -36 124
 TRI -9 9 -102
 TRI 120 -95 -164
 TRI 15 16 -104
 TRI 104 -77 -80
 TRI 120 -162 92
 TRI -12 17 -107
 TRI 176 88 -123
 TRI 173 -78 -83
 TRI 178 123 -17
 TRI -11 -28 -111
 TRI -15 -14 -124
 TRI 28 29 -113
 TRI 30 31 -114
 TRI -19 -33 -115
 TRI 164 6 1
 TRI 151 -5 96
 TRI 172 -64 -67
 TRI 115 135 -3
 TRI -40 40 -120
 TRI 173 139 -86
 TRI -109 62 -85
 TRI -143 148 -105
 TRI 169 -24 -22
 TRI -41 43 -125
 TRI 46 47 -126
 TRI -86 141 -88
 TRI -50 50 -128
 TRI 25 27 -146
 TRI 129 -23 -22
 TRI -53 53 -131
 TRI -51 51 -132
 TRI 34 -57 -133
 TRI 57 58 -134
 TRI 38 -61 -135
 TRI -146 24 9
 TRI -59 59 -137
 TRI 62 63 -138
 TRI 64 65 -139
 TRI 67 118 -49
 TRI -62 64 -141
 TRI 128 -44 -128
 TRI 115 145 10
 TRI -71 71 -144
 TRI -126 145 -160
 TRI -168 121 -159
 TRI -74 74 -147
 TRI -72 72 -148
 TRI 55 -78 -149
 TRI 81 121 92
 TRI 59 -82 -151
 TRI 61 56 -118
 TRI -101 44 -107
 TRI -153 117 41
 TRI 85 86 -155
 TRI -87 87 -156
 TRI -179 -20 -150
 TRI 88 89 -158
 TRI 69 -92 -159
 TRI -135 144 -118
 TRI -165 149 -107
 TRI 93 94 -162
 TRI -95 95 -163
 TRI -93 93 -164
 TRI -176 -19 19
 TRI -4 -3 -97
 TRI 96 -2 -1
 TRI 97 -6 -5
 TRI 98 -5 -4
 TRI 99 -10 -8
 TRI 165 119 124
 TRI 101 11 -6
 TRI 176 158 92
 TRI 103 -13 -7
 TRI -143 75 -80
 TRI 122 90 92
 TRI 106 19 -16
 TRI 164 103 -124
 TRI -142 82 83
 TRI -176 -14 -17
 TRI 110 26 -21
 TRI 123 -13 1
 TRI 112 -21 -15
 TRI 113 29 -27
 TRI 114 31 -29
 TRI 164 -98 96
 TRI 20 129 -3
 TRI -141 108 -156
 TRI -170 129 -136
 TRI 119 35 -12
 TRI -141 139 86
 TRI -81 104 -83
 TRI -180 148 -83
 TRI -136 -24 22
 TRI 124 45 -42
 TRI 125 -37 -25
 TRI 120 162 -86
 TRI 127 39 -28
 TRI 151 101 10
 TRI 159 -10 36
 TRI 130 44 -33
 TRI 131 53 -44
 TRI 132 -56 -55
 TRI 133 -55 -38
 TRI 134 -60 -58
 TRI -136 24 -8
 TRI 136 61 -56
 TRI 137 -42 -57
 TRI 138 -44 -61
 TRI 165 -40 43
 TRI 140 66 -63
 TRI 166 -132 -128
 TRI 153 101 -160
 TRI 143 60 -51
 TRI 44 -18 -166
 TRI -148 121 161
 TRI 146 65 -54
 TRI 147 74 -65
 TRI 148 -77 -76
 TRI 118 -71 -70
 TRI 150 -81 -79
 TRI -172 34 -118
 TRI -15 -19 -150
 TRI 138 -125 -118
 TRI 154 -65 -82
 TRI 155 84 -67
 TRI -171 159 -28
 TRI 157 -79 -69
 TRI 158 -91 -89
 TRI 105 -36 41
 TRI -111 149 -175
 TRI 161 -73 -92
 TRI 162 86 -75
 TRI 163 95 -86
 TRI 170 160 47
 TRI 116 -71 72
 TRI -46 100 -106
 TRI 81 147 -121
 TRI 42 -16 -106
 TRI 107 -36 -35
 TRI -48 109 -39
 TRI 37 171 -135
 TRI -160 144 -120
 TRI -127 60 131
 TRI 153 -9 36
 TRI -127 147 73
 TRI -43 -46 -112
 TRI -157 60 -110
 TRI 81 61 -174
 TRI -171 38 -128
 TRI 173 108 -142
 TRI 133 136 -135
 TRI -180 55 -174
 TRI -31 174 -33
 TRI 166 52 -31
 TRI 101 -100 98
 TRI -146 135 99
 TRI 172 -46 -66
 TRI 102 -6 -154
 TRI -153 138 45
 TRI -180 -59 150
 TRI 58 142 -79
 TRI 166 53 -129
 TRI 109 -51 -49
 TRI 168 -111 -15
 TRI -157 -144 -49
 TRI 20 169 -116
 TRI -155 120 74
 TRI 166 -52 49
 TRI -103 159 11
 TRI -148 -144 -117
 TRI -168 -72 -70
 TRI -161 -50 -49
 TRI 174 -18 -28
 TRI 61 137 -153
 TRI 170 -26 125
 TRI -179 -16 -165
 TRI 100 -12 -166
 TRI -176 14 -179
 TRI 164 -6 -152
 TRI -168 156 67
 TRI -178 -48 67
 TRI -129 30 130
 TRI -145 38 40
 TRI 81 167 -177
 TRI -129 174 -45
 TRI 134 167 -178
 TRI -160 38 39
 TRI -127 138 -54
 TRI 168 113 -29
 TRI 102 -36 -145
 TRI 168 26 -113
 TRI -151 -69 -177
 TRI -65 152 -173
 TRI -141 137 -173
 TRI 37 34 -145
 TRI 128 165 -28
 TRI 108 -84 77
 TRI -155 173 140
 TRI -150 -11 17
 TRI -112 -20 -45
 TRI -108 -34 5
 TRI 37 -34 -154
 TRI -58 177 68
 TRI -180 136 -82
 TRI -111 115 25
 TRI 26 169 25
 TRI -180 142 80
 TRI -140 108 -88
 TRI 111 100 15
 TRI -172 132 -62
 TRI -81 -90 -123
 TRI 54 136 -172
 TRI -168 -144 -119
 TRI -65 126 146
 TRI 59 167 68
 TRI 176 157 80
 TRI 37 107 -103
 TRI -165 -11 11
 TRI 151 -99 -3
 TRI -161 127 -110
 TRI 134 156 47
 TRI 168 30 -115
 TRI -122 -72 -92
 TRI 117 -41 -61
 TRI -127 -144 51
 TRI -161 -26 46
 TRI -74 116 51
 TRI 168 174 18
}
Locations ( 232 ) {
 e e i i i i e e i i i i i i e e e e i i e i i i e i e f e e
 i i e e f e e i i i e i e i i i i i i e i e i i i i i i e i
 e e i i e e e e e e e e i i i i e e e i i e e i e e e e i e
 i i i i e i e f e i i i i e f e e i e i e i i i i i i i i e
 i e e i i i i i e i e e e i e e e i e i i e e f i i i e i e
 i i i i i i i e i i e i i i e i f i i i i e i i i e i i i i
 i i i i e i f i i i i i i i i i i i f i e i i e e e e i i e
 i i i i e i i i i i i i i i i i i i i e e i 
 }
 